<?xml version="1.0"?>
<VTKFile type="UnstructuredGrid" version="0.1" byte_order="LittleEndian" header_type="UInt32">
  <UnstructuredGrid>
    <Piece NumberOfPoints="6826" NumberOfCells="35262">
      <PointData>
        <DataArray type="Float32" Name="Point Scalar Data" format="ascii" RangeMin="-1.3471299631362399e-9" RangeMax="0.000271649012574926">
          1.1640600289242187e-10 5.894320032062694e-10 -2.2401200339139393e-10 -1.9775500681440406e-10 1.2283899453180425e-9 -5.455100260398638e-10
          3.0960900510024203e-10 -2.02681996186449e-10 -3.1055399918322735e-10 2.0073300660561344e-12 2.2459799645102585e-11 6.771869870414449e-11
          -9.97329024921001e-11 4.9427401060953e-10 -2.7669799784746374e-10 2.5405499926023367e-10 -3.062819997623478e-10 -1.729820037210672e-10
          7.885950226160787e-11 2.1137000483228974e-10 -9.053090221922133e-11 6.78197997761032e-10 1.7051300649217893e-10 3.1122798782590166e-11
          1.2508399871435927e-10 -6.064609925360287e-10 7.62255980557569e-10 -8.216269886673899e-10 -2.4463001069285895e-10 2.35860997399584e-10
          -2.3816498773143735e-10 3.2113101067210437e-10 -1.849440045553763e-10 9.599109701552422e-11 9.342050466543128e-10 -1.2664399529072057e-9
          7.747190111651037e-10 1.704680008263182e-10 2.3667501292123916e-10 7.253950218277794e-11 -8.33967010033243e-12 -1.4668200465015047e-12
          -1.0571599845521362e-10 -9.360150154957836e-11 4.01024005669548e-11 7.253300043918998e-11 -1.747320066414204e-10 3.129929926348751e-10
          7.881759828132218e-11 8.347240260109245e-11 2.654280129021913e-10 -6.31786012394997e-10 1.3918100005838596e-10 -1.3645399914163914e-11
          2.3772400714605624e-10 -5.7381200485595585e-11 1.3305000157171065e-10 1.3408600618713962e-10 -1.3471299631362399e-9 1.497890034229954e-9
          -1.3101200679876968e-10 6.946659913964481e-11 2.71526995332394e-10 3.082220034755778e-10 -1.1254600029708683e-10 -2.0520299348625315e-10
          5.714009820856347e-10 -1.3476700311265688e-10 -8.740869898542225e-13 1.9196699785339888e-10 4.0124500944038743e-10 -3.461730069265201e-10
          7.91435972313792e-10 -1.7702499188754217e-11 2.815510047327052e-10 -1.5706000389137387e-10 -1.283600004065022e-9 3.6300198957839314e-10
          3.2328001386972005e-11 -5.272070002781959e-10 4.140149889586553e-10 2.4421001332264325e-10 8.818359931161979e-11 4.683069904087844e-11
          1.6505700140001522e-9 -4.2660399518501535e-11 7.419069698866299e-12 -8.040820231869361e-10 1.663470056145755e-10 -4.843589973546614e-10
          -7.355430153843656e-10 -1.3021800304713338e-10 2.5102400713628015e-10 -1.102389967505557e-11 -1.4584200513922951e-10 -3.5457999383869954e-12
          -7.944460089781558e-10 9.413030355176488e-10 -8.931660272493147e-11 4.8906600991216465e-11 5.365510258314998e-10 5.32714983236815e-10
          1.6002099645362478e-10 1.2248900504996385e-10 -4.2528199711844294e-11 -7.319079786682892e-10 -2.0595400385126084e-10 -1.9258100669716782e-10
          0.0002604589972179383 0.0002540769928600639 0.0002541359863243997 0.0002517460088711232 0.00025435900897718966 0.0002578439889475703
          0.0002592999953776598 0.000258715997915715 0.0002555960090830922 0.00025045601068995893 0.0002523580042179674 0.00025138098862953484
          0.00025011299294419587 0.0002485399891156703 0.0002502409915905446 0.0002502530114725232 0.00024994098930619657 0.00026721699396148324
          0.0002503609866835177 0.0002508129982743412 0.0002538750122766942 0.00025464899954386055 0.00025884099886752665 0.00026176200481131673
          0.0002638289879541844 0.0002709300024434924 0.000271649012574926 0.00027063800371252 0.0002676819858606905 0.0002689379907678813
          0.0002648539957590401 0.0002621689927764237 0.0002607670030556619 0.0002619760052766651 0.000261520006461069 0.0002647909859661013
          0.0002664609928615391 0.0002675320138223469 0.0002681330079212785 0.00026541799888946116 0.00026311399415135384 0.00026093400083482265
          0.00025954199372790754 0.0002593240060377866 0.0002541599969845265 0.00025244100834243 0.00025146501138806343 0.0002514969964977354
          0.0002512990031391382 0.00025210800231434405 0.0002481219999026507 0.0002489440084900707 0.00024837101227603853 0.000249075994361192
          0.00025018799351528287 0.00025056800222955644 0.00025257200468331575 0.0002558259875513613 0.0002575610124040395 0.0002566170005593449
          0.00025410301168449223 0.0002508560137357563 0.00025183800607919693 0.00025477600865997374 0.0002557970001362264 0.00025725498562678695
          0.000258343992754817 0.00026026100385934114 0.000260061991866678 0.000259536987869069 0.00025338499108329415 0.00024904499878175557
          0.0002494629879947752 0.00024630798725411296 0.0002458769886288792 0.00024769300944171846 0.00024957500863820314 0.00025295099476352334
          0.00025161600206047297 0.0002491819905117154 0.0002481720002833754 0.0002485309960320592 0.0002509460027795285 0.000254609010880813
          0.00025686799199320376 0.0002610399969853461 0.0002551540092099458 0.000252889993134886 0.00024773599579930305 0.00024685601238161325
          0.00024526999914087355 0.00024727199343033135 0.0002469340106472373 0.000247432995820418 0.0002487259916961193 0.00024612201377749443
          0.000245975999860093 0.0002454759960528463 0.000250498007517308 0.0002517979883123189 0.0002480229886714369 0.00024416198721155524
          0.0002446470025461167 0.00024522500461898744 0.00024391499755438417 0.0002461720141582191 0.00024577099247835577 0.00024486100301146507
          0.000004348200036474736 0.00000899621045391541 0.000014023799849383067 0.000019079299818258733 0.00002413239963061642 0.00002918249992944766
          0.00003422719964873977 0.000039286798710236326 0.00004434990114532411 0.000049408001359552145 0.00005447609873954207 0.00005953490108367987
          0.00006459219730459154 0.00006965349894016981 0.00007472730067092925 0.0000797831016825512 0.00008483770216116682 0.00008989199704956263
          0.00009494530240772292 0.00009999259782489389 0.00010502900113351643 0.00011007099965354428 0.00011513999925227836 0.00012020100257359445
          0.00012526099453680217 0.0001303189928876236 0.00013538300117943436 0.00014046099386177957 0.00014554199879057705 0.00015063599857967347
          0.00015567100490443408 0.0001607430021977052 0.00016581699310336262 0.0001709240023046732 0.00017599499551579356 0.00018108000222127885
          0.00018617100431583822 0.000191254002857022 0.0001963219983736053 0.0002014030033024028 0.0002065599983325228 0.00021165900398045778
          0.00021675399329978973 0.0002219059970229864 0.00022701799753122032 0.00023204399622045457 0.00023705800413154066 0.00024209900584537536
          0.0002468799939379096 0.000004109289875486866 0.000009059310286829714 0.00001440980031475192 0.000019694100046763197 0.00002494410000508651
          0.000030162400435074233 0.00003539260069373995 0.000040625600377097726 0.00004585439819493331 0.00005108469849801622 0.00005631260137306526
          0.00006154979928396642 0.0000667928034090437 0.00007204400026239455 0.00007729390199529007 0.00008252030238509178 0.00008774379966780543
          0.00009297610085923225 0.00009819299884838983 0.00010340900189476088 0.00010862400085898116 0.00011383699893485755 0.00011908599844900891
          0.00012433200026862323 0.00012957399303559214 0.00013480399502441287 0.00014003299293108284 0.00014526200538966805 0.0001505050022387877
          0.00015578200691379607 0.00016101800429169089 0.0001662540016695857 0.00017151300562545657 0.00017677000141702592 0.00018205099331680685
          0.00018731900490820408 0.00019256399536971003 0.00019790900114458054 0.00020317299640737474 0.00020846900588367134 0.0002136779949069023
          0.00021890600328333676 0.00022411800455302 0.0002293559955433011 0.0002347469999222085 0.0002401370002189651 0.0002455280045978725
          0.0002510409976821393 0.0002564289898145944 0.0002494080108590424 0.00024380300601478666 0.0002388139982940629 0.00023392599541693926
          0.00022881799668539315 0.0002237250009784475 0.00021873500372748822 0.0002138050040230155 0.00020878300711046904 0.00020368100376799703
          0.00019859800522681326 0.0001934850006364286 0.00018824900325853378 0.00018303199613001198 0.00017783899966161698 0.00017267400107812136
          0.00016748500638641417 0.00016233000496868044 0.0001571260072523728 0.00015196499589364976 0.00014678800653200597 0.00014161699800752103
          0.00013643999409396201 0.0001312569947913289 0.00012606900418177247 0.0001208789981319569 0.00011567500041564927 0.00011047300358768553
          0.00010527000267757103 0.00010007600212702528 0.00009489699732512236 0.00008972050272859633 0.00008453299960820004 0.00007935029861982912
          0.00007417140295729041 0.00006898449646541849 0.00006377520185196772 0.00005857840005774051 0.00005340449934010394 0.000048190900997724384
          0.00004300519867683761 0.000037824298487976193 0.000032640800782246515 0.00002743440018093679 0.000022227699446375482 0.00001702530062175356
          0.000011834100405394565 0.000006678209956589853 0.0002444119891151786 0.00023935400531627238 0.00023436399351339787 0.0002292809949722141
          0.00022414600243791938 0.0002189759979955852 0.0002138379932148382 0.00020871400192845613 0.00020352000137791038 0.00019842199981212616
          0.00019331400108058006 0.00018819200340658426 0.00018307799473404884 0.00017797399777919054 0.00017284200293943286 0.00016773800598457456
          0.0001626820012461394 0.00015760600217618048 0.0001525209954706952 0.00014747500244993716 0.00014243999612517655 0.0001374080020468682
          0.00013236800441518426 0.00012732800678350031 0.0001222870050696656 0.00011724400246748701 0.00011219400039408356 0.00010714399832068011
          0.00010209299944108352 0.00009704699914436787 0.00009201400098390877 0.00008697750308783725 0.00008193599933292717 0.00007690789789194241
          0.00007187470328062773 0.00006684019899694249 0.00006180250056786463 0.00005677370063494891 0.00005174029865884222 0.00004672829891205765
          0.00004170370084466413 0.000036668701795861125 0.0000316260993713513 0.000026586700187181123 0.0000215559994103387 0.000016476100427098572
          0.00001138340030593099 0.000006371260042214999 0.0002476490044500679 0.00024630900588817894 0.00024603400379419327 0.0002461030089762062
          0.000247171992668882 0.0002483669959474355 0.0002498459944035858 0.0002518290129955858 0.00025431401445530355 0.00025591699522919953
          0.0002552490041125566 0.0002521270071156323 0.0002494209911674261 0.0002498640096746385 0.000003587749915823224 0.0000034187598885182524
          0.000003473490096439491 0.000003563900008884957 0.0000037392899230326293 0.000004275760147720575 0.000003826949978247285 0.0000033903299936355324
          0.000004013929810753325 0.000003866579845634988 0.0000032747600471338956 0.0000034484498883102788 0.0000036278900097386213 0.000003606080099416431
          0.0002444949932396412 0.0002394299954175949 0.00023473199689760804 0.00023010899894870818 0.00022521099890582263 0.00022026800434105098
          0.0002152619999833405 0.00021018399274908006 0.00020513999334070832 0.00020006700651720166 0.00019494300067890435 0.00018980700406245887
          0.00018469699716661125 0.00017954000213649124 0.00017438600480090827 0.00016925900126807392 0.0001640859991312027 0.00015890199574641883
          0.00015375000657513738 0.00014859500515740365 0.0001434339937986806 0.00013829099771101028 0.00013314399984665215 0.00012799599790014327
          0.00012283900287002325 0.00011767500109272078 0.00011249400267843157 0.00010734699753811583 0.000102193997008726 0.00009703709656605497
          0.00009188010153593495 0.00008671240357216448 0.00008154199895216152 0.00007638009992660955 0.00007120829832274467 0.00006604939699172974
          0.00006090620081522502 0.00005573980160988867 0.000050587201258167624 0.00004544380135484971 0.0000403041995014064 0.000035153399949194863
          0.000030005199732840993 0.00002485699951648712 0.000019721699572983198 0.000014647100215370301 0.000009054960173671134 0.0002418590011075139
          0.0002363459934713319 0.00023127300664782524 0.00022618799994233996 0.0002210280072176829 0.00021591299446299672 0.00021077699784655124
          0.00020566799503285438 0.00020057499932590872 0.00019549000717233866 0.0001903789961943403 0.00018529400404077023 0.0001801979960873723
          0.000175093999132514 0.0001699860004009679 0.00016489600238855928 0.00015981000615283847 0.00015474499377887696 0.00014967599418014288
          0.0001446329988539219 0.0001395919971400872 0.00013455799489747733 0.0001295240072067827 0.00012449400674086064 0.00011945999722229317
          0.00011442400136729702 0.00010938700143015012 0.00010436199954710901 0.00009934989793691784 0.00009431350190425292 0.00008927949966164306
          0.00008423609688179567 0.00007922510121716186 0.00007421420013997704 0.00006920310261193663 0.00006418769771698862 0.000059173999034101143
          0.000054141499276738614 0.00004913279917673208 0.00004413229908095673 0.00003912820102414116 0.00003412730075069703 0.00002911750016210135
          0.000024114300686051138 0.00001911879917315673 0.000014100000043981709 0.00000854758036439307 0.00024170000688172877 0.00024144499911926687
          0.00024226699315477163 0.0002433540066704154 0.0002448330051265657 0.0002464640128891915 0.00024888801272027194 0.0002508549951016903
          0.00025129198911599815 0.00024921601288951933 0.0002463799901306629 0.000007616669790877495 0.000007557890057796612 0.000007623600140505005
          0.000007704369636485353 0.000007889219887147192 0.00000830589033284923 0.00000834792990644928 0.000007990710400918033 0.00000748388993088156
          0.000007694619853282347 0.000007576989901281195 0.0002416969946352765 0.00023722799960523844 0.00023257799330167472 0.00022757900296710432
          0.0002227200020570308 0.00021763899712823331 0.00021254799503367394 0.00020744999346788973 0.00020232399401720613 0.00019720999989658594
          0.0001920810027513653 0.0001869950065156445 0.00018192100105807185 0.00017680300516076386 0.00017169700004160404 0.00016654899809509516
          0.00016134099860209972 0.000156185997184366 0.00015100199379958212 0.00014582699805032462 0.000140661999466829 0.00013549400318879634
          0.00013032999413553625 0.0001251619978575036 0.00011999699927400798 0.00011482099944259971 0.000109658001747448 0.00010448900138726458
          0.00009932219836628065 0.00009418040281161666 0.00008904859714675695 0.00008389169670408592 0.00007874579750932753 0.00007360590097960085
          0.00006845559983048588 0.00006330439646262676 0.00005816300108563155 0.00005301290002535097 0.000047880799684207886 0.00004275190076441504
          0.00003760919935302809 0.000032480798836331815 0.000027338099243934266 0.000022194199118530378 0.000017294900317210704 0.000012483100363169797
          0.00023773699649609625 0.00023292000696528703 0.00022817299759481102 0.00022306300525087863 0.00021795700013171881 0.00021291800658218563
          0.00020782700448762625 0.00020275100541766733 0.00019768200581893325 0.000192599996807985 0.00018751500465441495 0.0001824609935283661
          0.00017738899623509496 0.00017231900710612535 0.00016725600289646536 0.00016219100507441908 0.00015714199980720878 0.00015208199329208583
          0.0001470300048822537 0.0001419909967808053 0.0001369560050079599 0.0001319209986831993 0.00012688100105151534 0.00012184600200271234
          0.00011681800242513418 0.00011178400018252432 0.00010675100202206522 0.00010171799658564851 0.00009671419684309512 0.00009169500117423013
          0.00008668490045238286 0.00008167170017259195 0.00007665980228921399 0.00007164200360421091 0.00006662609666818753 0.00006162739737192169
          0.00005663020056090318 0.00005161689841770567 0.00004661469938582741 0.00004162449840805493 0.0000366394997399766 0.000031698298698756844
          0.00002669440073077567 0.000021690799258067273 0.000016945599782047793 0.000012269400031073019 0.0002380700025241822 0.00023838700144551694
          0.00023977500677574426 0.00024150099488906562 0.0002435649948893115 0.0002455830108374357 0.00024665798991918564 0.0002465680008754134
          0.000011698700291162822 0.000011719400390575174 0.00001219770001625875 0.00001207249988510739 0.000011534400073287543 0.00001136779974331148
          0.000011893500413862057 0.000011823100066976622 0.00024277600459754467 0.00023700000019744039 0.00023187900660559535 0.00022649600578006357
          0.00022095500025898218 0.00021580200700554997 0.00021057800040580332 0.00020540000696200877 0.00020021900127176195 0.00019504000374581665
          0.00018989799718838185 0.000184698001248762 0.00017956299416255206 0.0001743580069160089 0.00016913999570533633 0.00016392099496442825
          0.00015871100185904652 0.00015350400644820184 0.00014830099826212972 0.00014311399718280882 0.00013793799735140055 0.00013276799290906638
          0.00012760500248987228 0.00012243600212968886 0.0001172600022982806 0.00011208099749637768 0.00010693699732655659 0.00010178399679716676
          0.0000966415973380208 0.0000914781994652003 0.00008630789670860395 0.00008116009848890826 0.00007602800178574398 0.00007088240090524778
          0.00006574529834324494 0.00006060899977455847 0.00005547469845623709 0.000050342998292762786 0.000045223900087876245 0.00004009329859400168
          0.00003497520083328709 0.000029569799153250642 0.0000243421000050148 0.00001919739952427335 0.000013209900316724088 0.00023610200150869787
          0.00023033500474411994 0.00022536999313160777 0.00022024899953976274 0.000215018997550942 0.0002100200072163716 0.00020497299556154758
          0.00019993699970655143 0.00019487699319142848 0.0001898379996418953 0.00018478400306776166 0.0001797320001060143 0.000174703003722243
          0.00016969899297691882 0.00016465499356854707 0.00015963800251483917 0.00015462499868590385 0.00014956599625293165 0.0001445030065951869
          0.00013947300612926483 0.0001344519987469539 0.00012943599722348154 0.00012441699800547212 0.00011938199895666912 0.00011434000043664128
          0.00010930799908237532 0.00010429599933559075 0.00009929310181178153 0.00009427649638382718 0.00008924659778131172 0.00008423720282735303
          0.00007920609641587362 0.00007417530287057161 0.00006916640268173069 0.00006415599636966363 0.000059147401771042496 0.00005415609848569147
          0.00004914919918519445 0.00004412369889905676 0.00003910590021405369 0.00003424230089876801 0.000029067599825793877 0.00002398899960098788
          0.000018940900190500543 0.000013103700439387467 0.00023296299332287163 0.00023437899653799832 0.00023601899738423526 0.00023792100546415895
          0.00024009299522731453 0.00024174699501600116 0.0002414110058452934 0.00001608139973541256 0.00001612350024515763 0.00001629110010981094
          0.000016534500900888816 0.00001673239967203699 0.000016477399185532704 0.00001627870005904697 0.00023621700529474765 0.0002313779987161979
          0.000224959003389813 0.00021963499602861702 0.0002143059973604977 0.000208985002245754 0.0002036600053543225 0.00019837799482047558
          0.00019313200027681887 0.0001878320035757497 0.0001825380022637546 0.00017719200695864856 0.00017193099483847618 0.00016670300101395696
          0.0001614700013305992 0.00015624599473085254 0.00015101900498848408 0.0001457659964216873 0.0001405910006724298 0.0001353859988739714
          0.00013020400365348905 0.00012502599565777928 0.00011985399760305882 0.00011467299918876961 0.00010951999865937978 0.00010434699652250856
          0.00009918939758790657 0.00009401339775649831 0.00008885499846655875 0.00008370089926756918 0.00007854150317143649 0.00007338020077440888
          0.00006822770228609443 0.00006309409945970401 0.00005796070036012679 0.00005283379869069904 0.00004771650128532201 0.000042600800952641293
          0.0000374884984921664 0.00003238479985157028 0.00002642639992700424 0.000021587300579994917 0.00022822599567007273 0.00022360899311024696
          0.00021786299475934356 0.00021263299277052283 0.00020761399355251342 0.00020257699361536652 0.0001975920022232458 0.00019259400141891092
          0.00018762500258162618 0.0001826170046115294 0.0001775720011210069 0.00017252399993594736 0.0001675020030234009 0.00016246399900410324
          0.00015741899551358074 0.00015234599413815886 0.0001472750009270385 0.00014223999460227787 0.00013720399874728173 0.00013212600606493652
          0.00012705700646620244 0.00012204700033180416 0.00011704100325005129 0.00011198499851161614 0.00010697700054151937 0.0001019870032905601
          0.00009694899927126244 0.00009195639722747728 0.0000869607029017061 0.0000819135966594331 0.00007687970355618745 0.00007185090362327173
          0.0000668615975882858 0.00006187539838720113 0.00005684779898729175 0.000051835300837410614 0.0000467887002741918 0.0000417613991885446
          0.000036735298635903746 0.000031789200875209644 0.00002599300023575779 0.000021240999558358453 0.00022919499315321445 0.0002305249945493415
          0.00023260500165633857 0.00023446099658031017 0.00023612199584022164 0.00023691600654274225 0.00002067300010821782 0.000020712199329864234
          0.000020788300389540382 0.00002099230005114805 0.00002148020030290354 0.00002101989957736805 0.0002277610037708655 0.00022296499810181558
          0.00021747399296145886 0.0002119309938279912 0.0002065659937215969 0.0002010220050578937 0.0001959429937414825 0.00019037800666410476
          0.00018493599782232195 0.0001795980060705915 0.0001743180037010461 0.00016896599845495075 0.0001637130044400692 0.0001584590063430369
          0.00015319600061047822 0.0001479969942010939 0.00014276200090534985 0.0001375580031890422 0.00013233799836598337 0.00012745299318339676
          0.0001222809951286763 0.00011706999794114381 0.0001119049993576482 0.00010677200043573976 0.0001015820016618818 0.00009644789679441601
          0.0000910201997612603 0.00008589399658376351 0.0000809617995400913 0.00007575280324090272 0.00007062670192681253 0.0000654636969557032
          0.000060274600400589406 0.00005536719982046634 0.00005028169834986329 0.000045172600948717445 0.000040049199014902115 0.000034672899346333
          0.00003009489955729805 0.0002206719946116209 0.0002162000018870458 0.00021086599736008793 0.00020574999507516623 0.00020068000594619662
          0.0001957789936568588 0.0001907989935716614 0.0001860530028352514 0.0001806799991754815 0.0001755660050548613 0.00017044099513441324
          0.00016568700084462762 0.0001606680016266182 0.00015549799718428403 0.0001501340011600405 0.00014503199781756848 0.00014003900287207216
          0.00013497400505002588 0.00012990999675821513 0.00012484900071285665 0.00011986299796262756 0.0001147660004789941 0.00010970800212817267
          0.00010474400187376887 0.0000996411035885103 0.00009461669833399355 0.00008968909969553351 0.00008460909884888679 0.0000795305022620596
          0.00007437379827024415 0.00006945709901629016 0.00006456989649450406 0.00005960389898973517 0.000054544401791645214 0.00004922640073345974
          0.00004416730007505976 0.000039013200876070186 0.00003401479989406653 0.000029517399525502697 0.00022530200658366084 0.0002269950055051595
          0.00022921299387235194 0.00023089400201570243 0.0002319409977644682 0.000025378400096087717 0.000024988899895106442 0.000025068300601560622
          0.000025505400117253885 0.000025988400011556223 0.00022570400324184448 0.00021971200476400554 0.00021395400108303875 0.00020878900249954313
          0.00020322800264693797 0.00019734200031962246 0.00019187599536962807 0.00018672300211619586 0.0001816629956010729 0.00017645600019022822
          0.00017110300541389734 0.0001656259992159903 0.00016045999655034393 0.0001554000045871362 0.00015026000619400293 0.00014494599599856883
          0.00013955100439488888 0.0001345630007563159 0.00012944299669470638 0.00012430800416041166 0.00011911700130440295 0.00011395799810998142
          0.00010885100346058607 0.00010368999937782064 0.00009852660150500014 0.00009334339847555384 0.00008804970275377855 0.00008313509897561744
          0.00007816150173312053 0.00007296179683180526 0.00006754139758413658 0.00006232340092537925 0.000057683399063535035 0.00005282799975248054
          0.000047719498979859054 0.00004266520045348443 0.000037326801248127595 0.00003122859925497323 0.00022080499911680818 0.00021469799685291946
          0.00020945799769833684 0.00020381700596772134 0.00019888000679202378 0.00019405499915592372 0.0001893050066428259 0.00018441899737808853
          0.00017913499323185533 0.0001737809943733737 0.000168928992934525 0.00016411699471063912 0.0001588729937793687 0.00015357999654952437
          0.00014816799375694245 0.00014334599836729467 0.00013847000082023442 0.00013318000128492713 0.00012784000136889517 0.00012302599498070776
          0.000117942996439524 0.00011256900324951857 0.00010786799975903705 0.00010277800174662843 0.00009736740321386606 0.00009267759742215276
          0.00008780079951975495 0.00008245200297096744 0.00007716390246059746 0.00007206779991975054 0.00006712749745929614 0.00006219380156835541
          0.00005698870154446922 0.00005177489947527647 0.00004668949986808002 0.00004153460031375289 0.000036006800655741245 0.000030382499971892685
          0.0002237550070276484 0.00022585100668948144 0.000028748600016115233 0.00003001930053869728 0.00022073900618124753 0.00021594199643004686
          0.00021056899277027696 0.0002051759947789833 0.00019885400251951069 0.00019285599410068244 0.00018772900511976331 0.0001826310035539791
          0.00017834900063462555 0.0001731389929773286 0.0001671700010774657 0.00016178500663954765 0.00015668000560253859 0.00015235600585583597
          0.00014717900194227695 0.0001412940036971122 0.00013592600589618087 0.00013161600509192795 0.00012654300371650606 0.00012073999823769554
          0.00011618199641816318 0.00011114300286862999 0.00010537100024521351 0.00010083399683935568 0.00009581689664628357 0.00008997709664981812
          0.00008468570013064891 0.00008069410250755027 0.00007618639938300475 0.00007007749809417874 0.0000642965969746001 0.00006002029840601608
          0.000055620901548536494 0.000050638998800422996 0.00004550800076685846 0.000040450100641464815 0.00003539129829732701 0.0002188950020354241
          0.00021405699953902513 0.0002075340016745031 0.00020207700436003506 0.0001975030027097091 0.00019316800171509385 0.00018831700435839593
          0.0001831880072131753 0.00017750400002114475 0.00017234199913218617 0.00016782399325165898 0.00016291100473608822 0.00015742699906695634
          0.0001516960037406534 0.00014661300519946963 0.00014238100266084075 0.0001369030069326982 0.00013116000627633184 0.00012610599515028298
          0.00012156800221418962 0.00011580499995034188 0.00011082900164183229 0.00010632199700921774 0.00010053200094262138 0.0000956387011683546
          0.00009139699977822602 0.00008596249972470105 0.00008024439739529043 0.00007420319889206439 0.00006987059896346182 0.00006560239853570238
          0.000059904799854848534 0.00005413019971456379 0.00004900259955320507 0.00004358910155133344 0.000038365800719475374 0.000033129501389339566
          0.0000024969699552457314 0.000002536899955885019 0.00025421701138839126 0.00024822200066410005 0.0002566860057413578 0.0002514609950594604
          0.0002459480019751936 0.0002404489932814613 0.00023497099755331874 0.00022950100537855178 0.00022406299831345677 0.0002186579949920997
          0.00021317499340511858 0.00020780299382749945 0.00020242099708411843 0.00019702799909282476 0.00019163799879606813 0.00018631300190463662
          0.00018096000712830573 0.00017566099995747209 0.00017033900076057762 0.00016504300583619624 0.0001597399968886748 0.00015442399308085442
          0.00014912699407432228 0.00014384399401023984 0.0001385649957228452 0.0001332929969066754 0.00012801800039596856 0.00012274799519218504
          0.00011746599921025336 0.00011218299914617091 0.00010689299961086363 0.00010161400132346898 0.00009633110312279314 0.00009104720083996654
          0.00008577240078011528 0.00008048790186876431 0.00007523989916080609 0.00006997080345172435 0.00006471179949585348 0.00005944270014879294
          0.00005418869841378182 0.000048920399422058836 0.000043657499190885574 0.00003839229975710623 0.00003311290129204281 0.000027826499717775732
          0.000022569300199393183 0.00001727900053083431 0.000011962099961237982 0.000006727580057486193 0.0002448100131005049 0.00023979900288395584
          0.0002347249974263832 0.00022973099839873612 0.00022462800552602857 0.00021949400252196938 0.00021444799494929612 0.0002094630035571754
          0.00020445299742277712 0.00019940499623771757 0.00019429299572948366 0.00018926599295809865 0.00018420399283058941 0.00017910500173456967
          0.00017402300727553666 0.00016898800095077604 0.00016393499390687793 0.00015887900372035801 0.00015381099365185946 0.00014871699386276305
          0.00014364199887495488 0.0001385710056638345 0.00013350100198294967 0.0001284280006075278 0.0001233549992321059 0.00011827999696834013
          0.00011319499753881246 0.00010811499669216573 0.00010303399903932586 0.00009793750359676778 0.00009284199768444523 0.00008777839684626088
          0.00008270829857792705 0.0000776407978264615 0.00007256359822349623 0.00006749499880243093 0.00006242920062504709 0.00005735080048907548
          0.000052269500883994624 0.00004717849878943525 0.000042084000597242266 0.0000370007983292453 0.00003191869836882688 0.00002682530066522304
          0.000021736999769927934 0.000016635800420772284 0.000011527999959071167 0.000006481900072685676 0.0002605789923109114 0.0002626960049383342